0ad
OpenMolcas
PyGreSQL
R2spec
ViTables
ansible-review
barman
blender
btrfs-progs
bumpversion
calypso
cinch
commissaire-client
cppcheck
cranc
crudini
cxxtest
datanommer
dlib
ec2-hibinit-agent
electrum
fbthrift
fedora-messaging
firefox
folly
fontforge
gajim
gau2grid
gfal2-python
ginga
git-filter-repo
gns3-gui
gns3-net-converter
gns3-server
gpsd
h5py
khard
kismon
koji
lammps
legofy
libcaca
libiptcdata
libnuml
libreoffice
lldb
llvm
llvm10
llvm11
llvm7.0
llvm9.0
mercurial
mod_wsgi
moose
mypaint
mysql-connector-python
nototools
officeparser
offlineimap
openbabel
percol
poezio
porcupine
protontricks
protonvpn-cli
prunerepo
pyaudio
pyhunspell
pyodbc
pyscard
pyserial
python-CommonMark
python-GridDataFormats
python-OBD
python-Pyped
python-Rtree
python-acoustid
python-agate
python-aiodns
python-ansicolors
python-apprise
python-apsw
python-arviz
python-astroplan
python-astropy-healpix
python-astroquery
python-astroscrappy
python-asttokens
python-audioread
python-autobahn
python-autopep8
python-b2sdk
python-bloom
python-blosc
python-box
python-btchip
python-cached_property
python-carbon
python-ccdproc
python-certbot-apache
python-chai
python-cmigemo
python-colorspacious
python-construct
python-contextlib2
python-cookiecutter
python-crochet
python-css-parser
python-dbfread
python-debrepo
python-decopatch
python-descartes
python-dialog
python-dijitso
python-django-contact-form
python-django-health-check
python-django-registration
python-django-reversion
python-django-tagging
python-django-tastypie
python-docx
python-dtfabric
python-dukpy
python-editorconfig
python-ephem
python-et_xmlfile
python-etcd
python-fasteners
python-ffc
python-fields
python-fisx
python-fitsio
python-flake8-docstrings
python-flask-gravatar
python-flask-htmlmin
python-flask-paranoid
python-flask-rstpages
python-flask-security
python-flask-sphinx-themes
python-flask-wtf-decorators
python-formats
python-fypp
python-gevent-eventemitter
python-google-i18n-address
python-googletrans
python-graphql-relay
python-heapdict
python-html5-parser
python-htmlmin
python-humblewx
python-hupper
python-i3ipc
python-inotify
python-jep
python-jinja2-cli
python-jinja2-time
python-jnius
python-joblib
python-jsonmodels
python-jsonrpclib
python-kerberos
python-kitchen
python-landslide
python-lark-parser
python-leather
python-libsass
python-libusb1
python-lmdb
python-logfury
python-makefun
python-managesieve
python-matrix-nio
python-meld3
python-minibelt
python-mmtf
python-mnemonic
python-music21
python-mwclient
python-myhdl
python-nbclient
python-nbxmpp
python-networkmanager
python-notario
python-oauth2
python-openoffice
python-ouimeaux
python-pandas-datareader
python-paste-script
python-patsy
python-pbkdf2
python-pecan-notario
python-pelican
python-pexpect
python-plaster-pastedeploy
python-plumbum
python-polib
python-precis_i18n
python-proteus
python-publicsuffix2
python-pulsectl
python-pvc
python-pycares
python-pycha
python-pygeoip
python-pylons-sphinx-themes
python-pymc3
python-pynn
python-pyotp
python-pypng
python-pyqtgraph
python-pyramid_sawing
python-pysb
python-pysignals
python-pyswip
python-pyte
python-pytest-astropy-header
python-pytest-cases
python-pytest-harvest
python-pytest-mock
python-pytest-repeat
python-pytest-steps
python-pytest-watch
python-pyvo
python-readthedocs-sphinx-ext
python-recommonmark
python-relatorio
python-restructuredtext-lint
python-requests-cache
python-retrying
python-rmtest
python-rosdep
python-sanction
python-scikit-learn
python-scrapy
python-setuptools-lint
python-shamir-mnemonic
python-simplemediawiki
python-slixmpp
python-smbc
python-snappy
python-social-auth-core
python-soupsieve
python-spdx
python-spdx-lookup
python-sphinxcontrib-bibtex
python-statsd
python-steam
python-tables
python-tempdir
python-timeout-decorator
python-tinydb
python-tortilla
python-tqdm
python-tree-format
python-trezor
python-twilio
python-txaio
python-unidecode
python-unidiff
python-upt-cpan
python-upt-fedora
python-upt-pypi
python-upt-rubygems
python-urwidtrees
python-vdf
python-wand
python-watchdog
python-webencodings
python-webpy
python-wsaccel
python-xlwt
python-xvfbwrapper
python-yarl
python-zstandard
python3-postgresql
python3-pytest-asyncio
python3-saml
qemu
rdkit
root
rpmspectool
salt
sepolicy_analysis
solaar
spec2scl
starcal
stomppy
sugar-speak
swid-tools
swift-lang
terminator
texlive-base
toot
translate-toolkit
trellis
tryton
trytond
trytond-account
trytond-account-be
trytond-account-de-skr03
trytond-account-invoice
trytond-account-invoice-history
trytond-account-invoice-line-standalone
trytond-account-product
trytond-account-statement
trytond-account-stock-anglo-saxon
trytond-account-stock-continental
trytond-analytic-account
trytond-analytic-invoice
trytond-analytic-purchase
trytond-analytic-sale
trytond-company
trytond-company-work-time
trytond-country
trytond-currency
trytond-dashboard
trytond-google-maps
trytond-ldap-authentication
trytond-party
trytond-party-siret
trytond-product
trytond-product-cost-fifo
trytond-product-cost-history
trytond-product-price-list
trytond-project
trytond-project-plan
trytond-project-revenue
trytond-purchase
trytond-purchase-invoice-line-standalone
trytond-sale
trytond-sale-opportunity
trytond-sale-price-list
trytond-stock
trytond-stock-forecast
trytond-stock-inventory-location
trytond-stock-location-sequence
trytond-stock-product-location
trytond-stock-supply
trytond-stock-supply-day
trytond-timesheet
ubertooth
uhd
upt
uwsgi
watchman
wine-mono
winpdb
xrootd
xtensor-python
yawn
